units           metal
atom_style      full
boundary        p p p

processors      4 4 1

# Read the latest restart from GCMC stage (wildcard picks most recent timestep)
read_restart    gp_h2_npt_eql_b.rst
Reading restart file ...
  restart file = 22 Jul 2025, LAMMPS = 22 Jul 2025
  restoring atom style full from restart
  orthogonal box = (-49.270533 -49.270533 -25) to (49.270533 49.270533 25)
  4 by 4 by 1 MPI processor grid
  pair style airebo stores no restart info
  13834 atoms
Finding 1-2 1-3 1-4 neighbors ...
  special bond factors lj:    0        0        0       
  special bond factors coul:  0        0        0       
     0 = max # of 1-2 neighbors
     0 = max # of 1-3 neighbors
     0 = max # of 1-4 neighbors
     1 = max # of special neighbors
  special bonds CPU = 0.002 seconds
  read_restart CPU = 0.067 seconds

# ---- Pair Style: AIREBO ----
pair_style      airebo 3.0 1 1
pair_coeff      * * CH.airebo C H
Reading airebo potential file CH.airebo with DATE: 2011-10-25

group           GP type 1
3948 atoms in group GP
group           H2 type 2
9886 atoms in group H2

# ============================================================================
# VELOCITY INITIALIZATION: Use unique seed for each replicate
# ============================================================================
# This creates diversity across replicates starting from the same restart file
# Seed is passed via command line: lmp_omp -in 03_gp_h2_npt_eql.lmp -var seed 12345
# Use "loop local" to handle non-consecutive atom IDs from GCMC restart
# ============================================================================
#variable        vseed index 45678       # Default seed (overridden by -var seed)
#velocity        all create 77.0 ${vseed} mom yes rot yes dist gaussian loop local

#reset_timestep  0
timestep        0.0005
variable        T equal 77.0
variable        P equal 10.0               # 10 bar H2 gas pressure (all directions)

thermo          2000
thermo_style    custom step time temp press pxx pyy pzz density pe ke ndanger econserve fnorm
compute         PEPAIR all pe/atom pair

dump            DNPT all custom 2000 gp_h2_npt_eql_c.dump id type mol x y z c_PEPAIR fx fy fz ix iy iz
dump_modify     DNPT sort id
# Write restart files frequently (every 2000 steps ~= 1 ps at timestep=0.0005)
# so that an early-stopped run leaves a recent restart the next stage can read
# Use two-file alternating pattern to avoid creating too many files
restart         2000 gp_h2_npt_eql_c_1.rst gp_h2_npt_eql_c_2.rst

# ============================================================================
# ANISOTROPIC NPT: xy-coupled for graphene, uniform pressure for H2 gas
# ============================================================================
# All directions at 10 bar (H2 gas exerts isotropic pressure)
# couple xy maintains graphene's square shape
# ============================================================================
#fix             NPT all npt temp ${T} ${T} 0.1 aniso ${P} ${P} 5.0 couple xy
fix             NPTXY all npt temp ${T} ${T} 0.1 x 10 10 5.0 y 10 10 5.0 couple xy
fix             NPTXY all npt temp 77 ${T} 0.1 x 10 10 5.0 y 10 10 5.0 couple xy
fix             NPTXY all npt temp 77 77 0.1 x 10 10 5.0 y 10 10 5.0 couple xy
Resetting global fix info from restart file:
  fix style: npt/omp, fix ID: NPTXY

fix             REC GP recenter INIT INIT INIT units box shift all
fix             MOM GP momentum 200 linear 1 1 1 angular

run             20000000            # 20000 ps = 10 ns at 0.5 fs
All restart file global fix info was re-assigned
Last active /omp style is pair_style airebo/omp
Neighbor list info ...
  update: every = 1 steps, delay = 0 steps, check = yes
  max neighbors/atom: 2000, page size: 100000
  master list distance cutoff = 12.2
  ghost atom cutoff = 12.2
  binsize = 6.1, bins = 17 17 9
  1 neighbor lists, perpetual/occasional/extra = 1 0 0
  (1) pair airebo/omp, perpetual
      attributes: full, newton on, ghost, omp
      pair build: full/bin/ghost/omp
      stencil: full/ghost/bin/3d
      bin: standard
WARNING: Communication cutoff adjusted to 12.2 (src/comm.cpp:752)
Per MPI rank memory allocation (min/avg/max) = 12.01 | 12.09 | 12.41 Mbytes
   Step          Time           Temp          Press           Pxx            Pyy            Pzz          Density         PotEng         KinEng       Ndanger     Econserve        Fnorm     
   2000100   1000.05        77.016729      45.412416      84.348945      83.95923      -32.070928      0.19626135    -51295.185      137.71019              0  -51188.695      76.972549    
   2002000   1001           77.893217      204.81996      222.46031      301.41881      90.580763      0.19634845    -51295.914      139.2774               0  -51188.764      76.01731     
   2004000   1002           77.061809     -16.68048      -64.165977     -56.054302      70.178839      0.19624859    -51295.356      137.7908               0  -51188.819      76.472246    
   2006000   1003           77.140569     -40.514733     -115.87449     -68.282029      62.612326      0.19628946    -51296.322      137.93163              0  -51188.865      76.648705    
   2008000   1004           76.742255     -71.345263     -159.78589     -88.730916      34.481013      0.19615226    -51296.605      137.21942              0  -51188.886      76.707446    
   2010000   1005           77.430159     -48.008728     -143.04768     -26.94889       25.970387      0.19618821    -51296.644      138.44943              0  -51188.939      76.84794     
   2012000   1006           76.550902      125.37764      159.34914      172.83242      43.951353      0.19617336    -51295.533      136.87727              0  -51188.983      76.501633    
   2014000   1007           76.355188      92.146267      144.57945      180.50082     -48.641474      0.19623831    -51296.389      136.52732              0  -51189.022      76.406989    
   2016000   1008           76.851063      78.167919     -121.19418      330.08976      25.608173      0.19605476    -51297.614      137.41397              0  -51189.051      76.345041    
   2018000   1009           76.677772      59.073915      40.793636      67.24065       69.18746       0.19626903    -51295.977      137.10412              0  -51189.074      76.951381    
   2020000   1010           76.769511      34.678123      56.784053      9.1172108      38.133104      0.19621051    -51295.219      137.26815              0  -51189.099      76.979777    
   2022000   1011           76.520001     -153.27316     -193.47023     -279.07457      12.725315      0.19604573    -51295.355      136.82202              0  -51189.148      77.085469    
   2024000   1012           76.729558      38.946501      74.22517      -16.811515      59.425849      0.19623693    -51297.548      137.19671              0  -51189.183      76.129466    
   2026000   1013           77.233371      90.648154      51.400011      140.57374      79.970706      0.19608358    -51297.38       138.09756              0  -51189.237      75.983065    
   2028000   1014           77.14405       66.838858      79.926673      44.637231      75.952669      0.19633609    -51295.578      137.93785              0  -51189.261      76.161273    
   2030000   1015           76.699807      67.636287      169.68861      13.480429      19.739825      0.19629682    -51293.689      137.14352              0  -51189.288      76.726578    
   2032000   1016           77.551751      26.286272     -244.77352      198.30367      125.32867      0.19615632    -51295.844      138.66684              0  -51189.342      76.144767    
   2034000   1017           77.40626      -32.714602     -192.84121      105.23458     -10.537174      0.19622768    -51295.112      138.4067               0  -51189.376      76.934301    
   2036000   1018           76.593044      148.05182      204.36822      170.42535      69.361891      0.19631327    -51295.304      136.95262              0  -51189.436      76.135966    
   2038000   1019           76.572695     -15.508913     -107.77645      6.3392183      54.910491      0.19617339    -51296.459      136.91624              0  -51189.465      75.648308    
   2040000   1020           77.193073      13.254404      123.23181     -136.69614      53.227544      0.19605896    -51296.049      138.0255               0  -51189.486      76.332594    
   2042000   1021           77.026721      81.768881      134.03404      54.575284      56.697316      0.19646166    -51295.719      137.72806              0  -51189.557      76.668229    
   2044000   1022           77.003506     -14.6417       -118.0441      -16.397264      90.516258      0.19610392    -51295.802      137.68655              0  -51189.576      75.874037    
   2046000   1023           76.911673     -9.1960644     -103.33122     -39.281463      115.02449      0.19608192    -51296.574      137.52235              0  -51189.607      76.267259    
   2048000   1024           77.263375     -89.20505      -141.65717     -114.89853     -11.05945       0.19610304    -51296.662      138.15121              0  -51189.645      76.703734    
   2050000   1025           76.15649      -18.779254     -75.382841      0.047278617    18.997801      0.19612767    -51295.777      136.17204              0  -51189.661      76.603195    
   2052000   1026           76.508119      30.921852     -74.031319      90.434127      76.362749      0.19643294    -51296.253      136.80077              0  -51189.69       76.512198    
   2054000   1027           77.282671      68.763384      92.175248      76.270602      37.844301      0.19632405    -51294.825      138.18571              0  -51189.725      77.081784    
   2056000   1028           77.561827      15.258628      64.173082     -51.509315      33.112117      0.19632655    -51295.591      138.68486              0  -51189.748      76.697058    
   2058000   1029           77.039438      50.482775     -150.59496      243.38753      58.655757      0.19637101    -51294.907      137.7508               0  -51189.792      76.171694    
   2060000   1030           76.776709     -57.346798     -116.2502      -96.604517      40.814324      0.19630194    -51294.492      137.28102              0  -51189.819      76.900554    
   2062000   1031           76.39569       61.37558       113.09104      76.680163     -5.6444603      0.19654213    -51294.976      136.59974              0  -51189.856      76.688912    
   2064000   1032           75.932988     -38.277452     -198.39012      13.790046      69.767716      0.19624789    -51295.682      135.7724               0  -51189.887      75.81299     
   2066000   1033           76.712777     -19.028341     -124.86751     -23.289382      91.071867      0.19619102    -51295.512      137.16671              0  -51189.928      76.210191    
   2068000   1034           77.869943     -44.287776     -144.16511     -12.384085      23.685867      0.19631175    -51296.069      139.23579              0  -51189.966      76.144949    
   2070000   1035           77.848359     -29.245563     -48.343819     -81.95012       42.557251      0.19620292    -51295.89       139.19719              0  -51190.011      76.598109    
   2072000   1036           76.88395      -104.03877     -305.16973     -108.58031      101.63374      0.19599798    -51294.314      137.47278              0  -51190.031      77.019438    
   2074000   1037           77.582491      8.6075476     -20.808679      2.165072       44.46625       0.19627163    -51295.772      138.72181              0  -51190.079      77.198636    
   2076000   1038           77.581628      80.498124      123.66078      29.78017       88.05342       0.19617224    -51295.762      138.72026              0  -51190.112      76.965605    
   2078000   1039           77.849295      51.25552       29.332601      67.890408      56.54355       0.19604278    -51295.732      139.19887              0  -51190.147      76.824514    
   2080000   1040           77.088065     -113.62254     -423.28504      38.836758      43.58067       0.19580605    -51294.183      137.83775              0  -51190.164      77.469679    
   2082000   1041           77.282449     -0.89073912    -13.708892     -36.567719      47.604394      0.19601089    -51296.064      138.18532              0  -51190.227      76.901356    
   2084000   1042           77.620331      8.8487248     -11.126991     -20.53692       58.210086      0.19632006    -51294.628      138.78947              0  -51190.243      77.916988    
   2086000   1043           76.8466       -103.39769     -348.29219      19.770626      18.328505      0.1960608     -51295.154      137.40599              0  -51190.305      76.695476    
   2088000   1044           76.880603      24.232409     -71.832692      109.2453       35.284617      0.19617254    -51296.16       137.46679              0  -51190.331      76.954364    
   2090000   1045           75.918521      88.920702      73.240298      169.30547      24.216338      0.19598947    -51295.513      135.74654              0  -51190.379      76.25632     
   2092000   1046           76.196033      40.179095     -97.841114      135.67019      82.708203      0.19597299    -51296.681      136.24274              0  -51190.397      76.616435    
   2094000   1047           76.577829      130.71557      206.86566      73.467267      111.81378      0.19627231    -51296.02       136.92541              0  -51190.413      77.549378    
   2096000   1048           77.482216     -0.58064586    -110.98521      3.2554448      105.98783      0.19614495    -51296.531      138.54251              0  -51190.431      77.377891    
   2098000   1049           76.763887      74.689419      146.15132      27.830248      50.086688      0.19648139    -51296.228      137.2581               0  -51190.465      77.068908    
   2100000   1050           77.074019     -50.149687     -166.40738     -33.067662      49.025978      0.19608294    -51296.551      137.81263              0  -51190.495      76.687992    
   2102000   1051           76.830852      41.973451      54.139737     -36.497428      108.27804      0.19613823    -51295.676      137.37783              0  -51190.53       77.080368    
   2104000   1052           77.422415     -44.240754     -155.63729      6.3876605      16.527363      0.19593197    -51295.985      138.43558              0  -51190.587      76.993675    
   2106000   1053           77.416697     -31.877264     -86.11226      -48.479969      38.960436      0.19627399    -51294.97       138.42536              0  -51190.597      77.325674    
   2108000   1054           77.085944      198.49465      307.04743      140.88466      147.55187      0.19637993    -51295.069      137.83395              0  -51190.641      78.061657    
   2110000   1055           76.968755      81.578717      91.275974      57.31602       96.144156      0.19637577    -51295.546      137.62441              0  -51190.67       77.189198    
   2112000   1056           76.545539      126.17443      218.00549      102.49937      58.018442      0.19648148    -51294.311      136.86768              0  -51190.697      78.006026    
   2114000   1057           76.849263     -31.650489     -132.62606     -15.234713      52.909302      0.19628511    -51295.394      137.41075              0  -51190.744      76.565663    
   2116000   1058           76.849003     -157.51881     -449.02666     -32.471552      8.9417755      0.19604272    -51294.619      137.41029              0  -51190.782      76.832916    
   2118000   1059           76.61567      -57.868626     -354.038        83.45438       96.977745      0.19611422    -51296.673      136.99308              0  -51190.82       76.564847    
   2120000   1060           77.062103      91.076713     -15.151523      238.52651      49.855148      0.19621725    -51296.595      137.79132              0  -51190.852      76.775953    
   2122000   1061           76.407855      132.62753      179.92331      173.98051      43.978768      0.19631884    -51298.495      136.62149              0  -51190.909      75.984271    
   2124000   1062           76.838506      42.131969      25.989891      44.915028      55.490988      0.19608424    -51296.984      137.39152              0  -51190.923      76.292476    
   2126000   1063           76.360418      19.683956      149.19179     -119.65671      29.51678       0.19643316    -51296.848      136.53667              0  -51190.981      77.055274    
   2128000   1064           76.692768     -16.469364     -55.147444      9.5649287     -3.8255774      0.1961627     -51295.951      137.13093              0  -51191.008      77.180213    
   2130000   1065           75.978514      24.643825      42.246903     -5.4246547      37.109227      0.19620537    -51296.557      135.85381              0  -51191.038      77.252753    
   2132000   1066           76.605123      72.198343      61.95388       80.849657      73.791492      0.19619688    -51296.323      136.97422              0  -51191.084      76.769536    
   2134000   1067           76.978045      50.454397      49.098375      27.477513      74.787305      0.19644228    -51297.821      137.64102              0  -51191.117      75.954667    
   2136000   1068           76.543406      102.25735      45.91849       175.49264      85.360915      0.1964838     -51297.426      136.86386              0  -51191.148      76.215389    
   2138000   1069           76.659506      32.716025     -133.86428      122.96819      109.04417      0.19622957    -51297.908      137.07146              0  -51191.19       76.640183    
   2140000   1070           76.60193       111.27501      162.45949      121.30965      50.055873      0.19628209    -51298.072      136.96851              0  -51191.232      77.082927    
   2142000   1071           77.327169     -48.614917     -80.868526     -65.263736      0.28751189     0.1961621     -51297.38       138.26528              0  -51191.269      76.304232    
   2144000   1072           77.353487      124.65529      69.892045      226.18651      77.887316      0.19619745    -51297.534      138.31233              0  -51191.288      76.585774    
   2146000   1073           76.61903       14.524547     -136.29992      187.83898     -7.9654149      0.196209      -51295.752      136.99909              0  -51191.316      77.762812    
   2148000   1074           77.102665     -26.049219     -235.98695      128.03313      29.806164      0.1962345     -51296.257      137.86385              0  -51191.369      77.140767    
   2150000   1075           77.573006      60.558495      43.789994      53.334372      84.551121      0.19637193    -51295.017      138.70485              0  -51191.402      77.347473    
   2152000   1076           76.915474     -45.847287     -176.20903     -48.643922      87.311094      0.19614072    -51295.442      137.52914              0  -51191.428      77.798976    
   2154000   1077           77.397533      8.5215591     -122.34163      131.30833      16.597984      0.19620095    -51295.247      138.39109              0  -51191.446      78.220191    
   2156000   1078           76.630963      119.42431      115.69254      200.08544      42.494965      0.19626714    -51296.128      137.02042              0  -51191.509      77.396482    
   2158000   1079           76.648033     -100.33312     -158.25757     -127.89932     -14.842453      0.19628461    -51296.521      137.05094              0  -51191.552      77.571374    
   2160000   1080           76.829435     -42.846974     -233.63744      39.08846       66.008061      0.19627077    -51294.667      137.3753               0  -51191.577      77.608756    
   2162000   1081           77.475741      67.843664     -108.83779      244.38752      67.981264      0.19636959    -51295.685      138.53093              0  -51191.629      76.966341    
   2164000   1082           76.705677      128.72379      105.89546      164.11718      116.15873      0.19618877    -51295.915      137.15401              0  -51191.666      76.819527    
   2166000   1083           76.678408      16.658982     -121.53582      158.95823      12.55454       0.19600106    -51295.975      137.10526              0  -51191.698      77.338123    
   2168000   1084           76.818722     -58.929024     -231.35184     -42.270052      96.834819      0.19606412    -51295.62       137.35614              0  -51191.714      76.715675    
   2170000   1085           77.016456     -12.292429     -25.605447     -86.158752      74.886913      0.19632257    -51296.131      137.7097               0  -51191.768      76.118541    
   2172000   1086           77.519778      143.01134      144.68229      125.6524       158.69933      0.19638264    -51297.705      138.60967              0  -51191.797      76.539739    
   2174000   1087           76.205949      101.31268      193.27357      72.923119      37.741358      0.19633205    -51295.923      136.26047              0  -51191.838      77.180298    
   2176000   1088           76.335179      28.315784      32.070238     -3.3783406      56.255453      0.19638382    -51296.711      136.49154              0  -51191.867      76.222376    
   2178000   1089           77.372215     -5.7173284      64.455988     -116.75098      35.143009      0.19640421    -51296.377      138.34582              0  -51191.905      77.200404    
   2180000   1090           76.567189     -80.970494     -166.31239     -88.084888      11.485794      0.19614707    -51296.799      136.90639              0  -51191.935      76.676087    
   2182000   1091           77.011612     -5.8439551     -83.577377      25.539506      40.506006      0.19640287    -51296.428      137.70104              0  -51191.975      76.020464    
   2184000   1092           77.466524      93.471207     -8.5961081      209.64782      79.361908      0.19660509    -51295.787      138.51445              0  -51192.031      76.950922    
   2186000   1093           76.837522      128.51206     -19.522637      334.6694       70.389409      0.19641993    -51294.675      137.38976              0  -51192.084      77.870319    
   2188000   1094           78.235001      48.451615     -166.78155      284.47863      27.657764      0.19625282    -51296.073      139.88853              0  -51192.127      76.543862    
   2190000   1095           77.218926      68.043817     -71.692746      241.84393      33.980266      0.19636833    -51295.479      138.07173              0  -51192.143      77.51057     
   2192000   1096           77.097402     -112.23389     -332.77856     -39.17927       35.256165      0.19606168    -51295.829      137.85444              0  -51192.189      77.845687    
   2194000   1097           78.006836     -38.992206     -42.774722     -144.58266      70.380761      0.1962046     -51296.035      139.48056              0  -51192.228      76.888334    
   2196000   1098           77.056848     -34.445153     -138.38748      52.570971     -17.518953      0.19619205    -51296.895      137.78193              0  -51192.272      76.369079    
   2198000   1099           76.813099      22.958113     -134.47003      94.728382      108.61598      0.19614496    -51296.842      137.34609              0  -51192.308      76.498912    
   2200000   1100           76.470512      8.7155793     -162.38051      127.07791      61.449336      0.19626244    -51296.973      136.73353              0  -51192.332      76.346908    
   2202000   1101           76.283838      50.35449       0.97891231     56.174989      93.909569      0.19631319    -51297.044      136.39974              0  -51192.363      76.47573     
   2204000   1102           76.733719      64.711268      115.77207     -9.431039       87.792768      0.196308      -51298.201      137.20415              0  -51192.41       76.434561    
   2206000   1103           76.667469      0.99164022    -123.06746      63.562173      62.480212      0.19632045    -51297.002      137.0857               0  -51192.426      76.874204    
   2208000   1104           77.061771      58.69203       93.190196      65.511328      17.374567      0.19642863    -51297.762      137.79073              0  -51192.463      76.181703    
   2210000   1105           76.027936      138.89896      130.5163       223.90379      62.276797      0.19643056    -51296.739      135.94218              0  -51192.488      76.85178     
   2212000   1106           76.324726     -24.540596     -101.58928     -10.355865      38.323361      0.19668545    -51295.591      136.47285              0  -51192.531      76.292281    
   2214000   1107           76.199562     -57.434266      17.839928     -246.43727      56.294541      0.19635551    -51296.045      136.24905              0  -51192.578      75.932484    
   2216000   1108           76.925957     -73.622171     -215.16868     -88.195978      82.498148      0.1960041     -51295.157      137.54789              0  -51192.619      76.837934    
   2218000   1109           77.571744     -11.615267     -60.136181      1.7070737      23.583305      0.19603901    -51295.796      138.70259              0  -51192.659      76.884928    
   2220000   1110           77.285175      22.077264     -93.75573       118.3305       41.657018      0.19622372    -51297.153      138.19019              0  -51192.698      76.868857    
   2222000   1111           77.463367      115.02444      123.9082       128.8726       92.29252       0.19652041    -51296.104      138.50881              0  -51192.732      77.297564    
   2224000   1112           77.066278      51.850901     -41.459173      141.0486       55.963274      0.19636392    -51298.025      137.79879              0  -51192.775      76.35207     
   2226000   1113           76.898927      89.666223     -43.979435      271.84211      41.135993      0.19623436    -51296.663      137.49956              0  -51192.813      77.078416    
   2228000   1114           76.523319      165.74529      151.44073      272.85222      72.942934      0.19614171    -51296.854      136.82795              0  -51192.852      76.642626    
   2230000   1115           76.869294      31.366647     -18.844416      84.292212      28.652145      0.19602199    -51296.284      137.44657              0  -51192.902      77.015441    
   2232000   1116           77.547983     -80.179556     -245.96461     -31.441235      36.867175      0.19602986    -51297.674      138.6601               0  -51192.934      76.325947    
   2234000   1117           77.101239      0.41037579    -255.43968      219.69695      36.973849      0.19615496    -51296.005      137.8613               0  -51192.964      77.210804    
   2236000   1118           77.51338       158.07413      144.0576       314.48228      15.682507      0.19631763    -51295.612      138.59823              0  -51192.989      77.392533    
   2238000   1119           78.016527      86.372246     -36.59377       153.5132       142.19731      0.19632073    -51297.543      139.49789              0  -51193.044      76.379111    
   2240000   1120           77.025685      57.612698      80.564978      37.958927      54.314189      0.19643917    -51298.034      137.72621              0  -51193.064      76.149019    
   2242000   1121           77.567861      61.017182      77.197841      34.316153      71.537552      0.19612323    -51296.601      138.69565              0  -51193.103      76.783051    
   2244000   1122           76.774401     -27.961468     -264.61965      139.07429      41.660962      0.19611539    -51296.688      137.2769               0  -51193.15       76.529423    
   2246000   1123           76.433575      64.792487      39.439997      127.8431       27.094364      0.19625981    -51296.684      136.66748              0  -51193.185      76.295363    
   2248000   1124           76.873057     -58.096083     -186.79247     -34.603972      47.108197      0.1964098     -51297.07       137.4533               0  -51193.225      76.312906    
   2250000   1125           76.933817     -182.08315     -350.06556     -247.33009      51.146184      0.19643366    -51297.678      137.56194              0  -51193.259      76.041238    
   2252000   1126           76.247453      24.728542     -22.247854      39.935317      56.498162      0.19630245    -51296.753      136.33468              0  -51193.306      75.622151    
   2254000   1127           76.618982     -64.418493     -222.13329      7.2010695      21.67674       0.19609295    -51296.807      136.999                0  -51193.344      76.200021    
   2256000   1128           77.331203     -5.051924      -187.25458      117.42609      54.672715      0.19628505    -51296.415      138.27249              0  -51193.377      76.838103    
   2258000   1129           76.928697      20.337397     -258.22522      222.58001      96.657393      0.1960907     -51296.526      137.55279              0  -51193.396      76.770593    
   2260000   1130           76.992323     -12.571136     -33.677303     -35.712567      31.676461      0.19635524    -51296.074      137.66655              0  -51193.451      76.434227    
   2262000   1131           77.52162      -53.953857     -215.20745     -16.35907       69.704949      0.1961085     -51297.669      138.61296              0  -51193.476      76.688939    
   2264000   1132           75.635607     -36.641749     -115.35547      4.580139       0.8500795      0.19609302    -51297.033      135.24067              0  -51193.508      76.609726    
   2266000   1133           76.526923     -76.450027     -125.85701     -119.15644      15.663369      0.19622316    -51297.628      136.83439              0  -51193.545      76.840501    
   2268000   1134           76.747482      59.279869     -126.9613       247.35208      57.44883       0.19618558    -51297.697      137.22876              0  -51193.595      75.979025    
   2270000   1135           76.833082      159.12273      121.95236      294.37086      61.044989      0.19647686    -51296.91       137.38182              0  -51193.636      76.230345    
   2272000   1136           77.235629      68.119626      74.49139       104.78678      25.080709      0.19630338    -51297.928      138.1016               0  -51193.657      76.752182    
   2274000   1137           77.773969     -28.525205     -18.115122     -67.663705      0.20321052     0.19619893    -51296.289      139.06418              0  -51193.694      76.766532    
   2276000   1138           77.859622     -98.960641     -337.93655     -14.181445      55.236068      0.19613804    -51297.867      139.21733              0  -51193.729      75.902204    
   2278000   1139           76.023634      100.20083     -195.589        447.98375      48.207739      0.19599759    -51298.406      135.93448              0  -51193.765      75.509915    
   2280000   1140           76.332437      74.348943     -71.595503      224.42481      70.217519      0.19646646    -51297.172      136.48664              0  -51193.802      76.267937    
   2282000   1141           75.924362     -136.44849     -236.60762     -156.17934     -16.558518      0.19615849    -51296.953      135.75698              0  -51193.839      77.118108    
   2284000   1142           77.768491      94.901246      117.09802      151.58213      16.023594      0.19632728    -51296.421      139.05438              0  -51193.866      76.489504    
   2286000   1143           78.174429      17.821899     -61.557057      36.992487      78.030267      0.19635515    -51296.48       139.78022              0  -51193.88       77.133855    
   2288000   1144           77.792992      28.488685     -14.98123       85.346314      15.100972      0.19613996    -51297.845      139.09819              0  -51193.931      75.527395    
   2290000   1145           76.912071      56.66911       27.831601      119.77509      22.400637      0.19620274    -51295.683      137.52306              0  -51193.963      77.435375    
   2292000   1146           76.962584     -1.2041744      38.533394     -75.037171      32.891254      0.19595672    -51295.832      137.61338              0  -51194.003      76.955636    
   2294000   1147           77.137528      41.049077      129.6073      -155.10718      148.64711      0.19620459    -51296.28       137.92619              0  -51194.027      76.320083    
   2296000   1148           76.314196      34.773371     -95.471685      146.50728      53.284517      0.19625597    -51297.55       136.45402              0  -51194.072      76.549859    
   2298000   1149           76.8102        123.91526      132.73535      198.23607      40.774365      0.19623688    -51296.238      137.34091              0  -51194.114      77.019156    
   2300000   1150           77.014847      147.39387      146.89383      247.40764      47.880129      0.19632265    -51296.072      137.70683              0  -51194.169      76.917352    
   2302000   1151           76.821804      88.020179     -81.78137       293.65974      52.182167      0.19597789    -51294.72       137.36166              0  -51194.212      76.679548    
   2304000   1152           77.185376      75.812762      174.93917     -42.489222      94.98834       0.19633582    -51294.992      138.01174              0  -51194.24       77.676236    
   2306000   1153           77.694471      3.9211981     -83.766062     -4.1075741      99.63723       0.19613013    -51296.707      138.92203              0  -51194.271      76.593921    
   2308000   1154           77.781468      39.146849     -43.589707      107.84982      53.180431      0.19625312    -51296.993      139.07759              0  -51194.314      76.31298     
   2310000   1155           76.447273      18.925707     -149.65217      138.62696      67.802332      0.19602187    -51297.464      136.69197              0  -51194.35       76.164946    
   2312000   1156           76.636578      125.34061      28.789209      210.85877      136.37386      0.19603745    -51295.972      137.03046              0  -51194.391      76.555605    
   2314000   1157           76.660073      81.684142      168.71047      35.989526      40.352429      0.19621707    -51295.482      137.07247              0  -51194.428      76.552193    
   2316000   1158           76.982183      118.0651       121.7777       119.43901      112.97858      0.19615371    -51296.057      137.64842              0  -51194.474      76.900808    
   2318000   1159           75.730493     -19.549834     -166.44861      103.32015      4.4789636      0.19611031    -51296.171      135.41033              0  -51194.513      76.662406    
   2320000   1160           77.218006      27.202206      46.990823     -17.081596      51.69739       0.19624427    -51295.158      138.07009              0  -51194.545      76.297135    
   2322000   1161           76.00644      -98.68496      -162.00629     -103.6414      -30.407192      0.19646159    -51295.483      135.90374              0  -51194.589      76.288944    
   2324000   1162           76.578822      26.556202     -60.33154       72.168414      67.831731      0.19640713    -51294.261      136.92719              0  -51194.638      76.59958     
   2326000   1163           76.490817      107.6268      -15.295001      289.08678      49.088621      0.19623175    -51296.596      136.76983              0  -51194.68       75.978754    
   2328000   1164           76.758086      141.67299      125.36163      213.29154      86.3658        0.19615173    -51295.357      137.24772              0  -51194.698      76.964162    
   2330000   1165           77.067827      69.424885     -22.681929      174.0569       56.899678      0.19605594    -51296.862      137.80156              0  -51194.74       76.675979    
   2332000   1166           77.21401      -96.769703     -362.9866       30.379777      42.297713      0.19626971    -51295.359      138.06294              0  -51194.755      77.238138    
   2334000   1167           75.276229     -40.171079     -92.800696      31.060459     -58.772998      0.19638563    -51296.955      134.59808              0  -51194.809      76.454353    
   2336000   1168           77.135773      49.269881      41.68753       36.129934      69.99218       0.19633393    -51296.308      137.92305              0  -51194.842      76.107519    
   2338000   1169           77.652622     -4.6150099     -13.986153      5.7019283     -5.5608049      0.19662816    -51295.822      138.84721              0  -51194.872      76.136354    
   2340000   1170           76.754512     -21.031786     -192.16612      64.631708      64.439059      0.19642109    -51296.706      137.24133              0  -51194.899      76.245858    
   2342000   1171           77.283924     -53.376195     -73.496021     -123.9643       37.331735      0.19639161    -51296.317      138.18795              0  -51194.933      76.571584    
   2344000   1172           75.555056      44.515929      41.620968      20.832585      71.094234      0.19613534    -51296.294      135.09664              0  -51194.963      76.486438    
   2346000   1173           76.583944     -62.565558     -141.19421     -100.99282      54.490354      0.1961899     -51296.766      136.93635              0  -51194.984      76.67009     
   2348000   1174           77.088389     -61.87824      -222.23891     -19.731698      56.335891      0.19625973    -51296.168      137.83833              0  -51195.026      76.008002    
   2350000   1175           76.404749     -38.235808     -408.59673      243.96647      49.922831      0.19598195    -51294.916      136.61594              0  -51195.052      76.118248    
   2352000   1176           76.626427      1.3868405     -109.89491      80.509604      33.545827      0.19623416    -51293.931      137.01231              0  -51195.079      76.995558    
   2354000   1177           77.630143      211.53592      224.88355      333.34552      76.378695      0.19638489    -51293.479      138.80701              0  -51195.11       77.182018    
   2356000   1178           76.988581      115.84373      18.180208      254.9858       74.365187      0.19636573    -51294.934      137.65986              0  -51195.181      77.284713    
   2358000   1179           77.296816     -54.475821     -173.29602     -47.028497      56.89705       0.19615596    -51294.486      138.211                0  -51195.204      77.224701    
   2360000   1180           77.596514      31.932671     -106.00774      106.08709      95.71867       0.19607309    -51294.129      138.74688              0  -51195.222      78.03826     
   2362000   1181           77.506343     -10.997705     -247.68484      159.41892      55.2728        0.19623897    -51295.547      138.58565              0  -51195.294      77.098789    
   2364000   1182           76.952337      91.736537      21.700746      169.63254      83.876326      0.19626318    -51295.444      137.59506              0  -51195.327      76.943942    
   2366000   1183           77.417101     -18.886497     -88.871405     -39.975279      72.187191      0.19626619    -51294.584      138.42608              0  -51195.335      76.875742    
   2368000   1184           78.221665      78.959003      35.773318      94.821446      106.28225      0.1964376     -51295.757      139.86469              0  -51195.394      76.147701    
   2370000   1185           77.507013      41.112168      108.82259     -3.0931089      17.607024      0.19636303    -51294.99       138.58685              0  -51195.427      76.236767    
   2372000   1186           76.55701       76.459805      274.21543     -75.58411       30.748099      0.19651105    -51295.362      136.88819              0  -51195.473      76.205353    
   2374000   1187           76.755098     -105.44154     -234.32317     -92.392249      10.390782      0.19617139    -51296.022      137.24238              0  -51195.517      75.393942    
   2376000   1188           77.092092     -94.526122     -113.7319      -195.60224      25.755777      0.1963539     -51295.328      137.84495              0  -51195.534      76.58308     
   2378000   1189           76.877808     -32.598053     -44.52637      -102.52945      49.26166       0.19652127    -51294.746      137.46179              0  -51195.557      76.849844    
   2380000   1190           78.193234     -34.054742     -157.38473     -90.52301       145.74352      0.1963236     -51294.55       139.81385              0  -51195.576      77.012896    
   2382000   1191           76.927424      103.0745      -94.840669      290.75133      113.31284      0.19642633    -51295.364      137.55051              0  -51195.622      77.484532    
   2384000   1192           76.860018      114.52319      7.7866364      297.31931      38.463617      0.19627532    -51294.648      137.42998              0  -51195.669      76.832388    
   2386000   1193           78.086365      113.97677     -35.730354      325.96519      51.695471      0.19634108    -51296.559      139.62276              0  -51195.691      76.684213    
   2388000   1194           76.123445      163.42376      45.581923      399.96455      44.724825      0.19641728    -51294.727      136.11295              0  -51195.709      77.668984    
   2390000   1195           76.536856      74.600447      54.576985      130.42027      38.804092      0.19661338    -51296.234      136.85215              0  -51195.771      77.219181    
   2392000   1196           77.582505     -6.8735684     -169.32973      90.449767      58.259257      0.19620941    -51297.024      138.72183              0  -51195.813      77.618251    
   2394000   1197           77.079658     -17.095053     -89.798115     -26.862816      65.375773      0.19620261    -51295.439      137.82271              0  -51195.829      77.899657    
   2396000   1198           76.736591     -2.3283586     -83.372582      40.04437       36.343136      0.19608021    -51295.298      137.20929              0  -51195.857      77.962573    
   2398000   1199           76.842655      14.568601      24.82879      -30.526202      49.403214      0.19645263    -51296.157      137.39894              0  -51195.921      77.38966     
   2400000   1200           76.123319      57.030914     -99.065099      254.76201      15.395832      0.19608449    -51294.503      136.11273              0  -51195.959      77.344316    
   2402000   1201           77.18208       37.794435      7.4995657      45.77646       60.10728       0.19607306    -51296.44       138.00585              0  -51196.013      77.4937      
   2404000   1202           76.011582      15.080407     -2.3855913     -40.622677      88.24949       0.19640123    -51294.169      135.91293              0  -51196.033      78.069865    
   2406000   1203           76.15679      -96.883717     -311.38297      41.294581     -20.562757      0.19626289    -51295.267      136.17257              0  -51196.086      77.676453    
   2408000   1204           76.81976       4.3621451     -121.01883      97.942269      36.162998      0.19633683    -51296.217      137.358                0  -51196.131      77.086736    
   2410000   1205           77.336398      142.5471      -58.430474      424.07434      61.997439      0.19623061    -51295.708      138.28178              0  -51196.15       77.411989    
   2412000   1206           76.841945      138.70436     -77.131931      391.24682      101.99818      0.19668158    -51295.109      137.39767              0  -51196.187      77.174441    
   2414000   1207           76.607014      84.694798     -7.0767107      156.664        104.49711      0.19642816    -51295.245      136.9776               0  -51196.227      77.143192    
   2416000   1208           77.883731      91.768082      94.398892      136.9633       43.942058      0.19643901    -51295.848      139.26044              0  -51196.275      76.398003    
   2418000   1209           76.688356      103.60227      63.938923      152.48271      94.385167      0.19633148    -51295.571      137.12304              0  -51196.293      76.915945    
   2420000   1210           76.820232      63.971042      169.15942     -47.596711      70.350417      0.19636955    -51294.833      137.35884              0  -51196.33       76.692881    
   2422000   1211           77.037947      13.535182     -171.74719      153.07946      59.273276      0.19637216    -51295.511      137.74813              0  -51196.365      76.478164    
   2424000   1212           77.157771      22.493652     -425.95075      377.8843       115.5474       0.1960605     -51295.018      137.96238              0  -51196.386      77.48088     
   2426000   1213           77.178313      76.508718     -37.390709      222.46607      44.450788      0.1963214     -51296.387      137.99911              0  -51196.407      77.637485    
   2428000   1214           76.843411      88.745973      126.85464      97.584393      41.798884      0.19630551    -51294.851      137.40029              0  -51196.446      77.93917     
   2430000   1215           76.502719     -43.681702     -131.39303     -46.974397      47.322324      0.19613899    -51297.142      136.79111              0  -51196.488      76.816813    
   2432000   1216           76.694737      63.927872     -2.5238917      160.80474      33.502766      0.19614732    -51296.545      137.13445              0  -51196.526      76.425158    
   2434000   1217           76.315199      99.495383      182.54407      27.20864       88.733433      0.19636506    -51296.65       136.45582              0  -51196.557      76.94694     
   2436000   1218           76.586883     -67.92272      -57.599472     -229.30408      83.135395      0.19627949    -51295.453      136.9416               0  -51196.575      76.546717    
   2438000   1219           76.993812     -53.415363     -68.459415     -139.2212       47.434525      0.19616671    -51296.797      137.66922              0  -51196.623      76.343913    
   2440000   1220           77.566534     -86.65896      -29.562921     -236.2967       5.8827396      0.19645374    -51295.415      138.69327              0  -51196.642      76.17482     
   2442000   1221           77.942795     -89.608877     -143.82536     -114.69057     -10.310704      0.19626727    -51294.803      139.36605              0  -51196.667      76.693267    
   2444000   1222           77.858374     -66.71322      -212.69557     -50.100422      62.656335      0.19629234    -51296.692      139.2151               0  -51196.707      75.822992    
   2446000   1223           76.8788       -19.515135     -162.20323      104.48319     -0.82536676     0.19620052    -51296.378      137.46357              0  -51196.744      76.743907    
   2448000   1224           77.606719      88.23946      -127.20562      343.93646      47.987546      0.19614795    -51296.092      138.76513              0  -51196.759      77.131085    
   2450000   1225           77.429547      159.99091      235.27906      178.39535      66.298317      0.19617586    -51297.266      138.44833              0  -51196.823      76.333615    
   2452000   1226           76.179026      151.28711      196.57122      226.6387       30.651405      0.1963196     -51296.989      136.21233              0  -51196.851      76.439169    
   2454000   1227           76.757737     -27.342205     -5.5092179     -107.75566      31.238265      0.1964136     -51296.743      137.2471               0  -51196.885      76.937039    
   2456000   1228           77.653873     -36.162509     -163.01991      14.195048      40.337339      0.19613172    -51296.689      138.84944              0  -51196.901      76.534593    
   2458000   1229           77.345039     -38.801566     -158.75083      50.955598     -8.6094719      0.19605472    -51296.732      138.29723              0  -51196.955      76.143551    
   2460000   1230           76.661191      28.324076      1.1000909      91.229173     -7.3570357      0.19629736    -51297.965      137.07447              0  -51196.993      76.076779    
   2462000   1231           76.373934      24.238892     -99.102176      138.02331      33.795541      0.19612925    -51296.52       136.56084              0  -51197.023      76.689812    
   2464000   1232           76.139589      53.50401       47.772304      77.043903      35.695824      0.19633066    -51296.305      136.14182              0  -51197.06       76.476504    
   2466000   1233           77.742066      55.328221     -4.0421798      122.07959      47.947254      0.19630577    -51296.35       139.00714              0  -51197.091      76.364802    
   2468000   1234           76.380486     -183.90477     -312.80826     -197.57777     -41.328277      0.19621943    -51294.735      136.57255              0  -51197.104      77.34007     
   2470000   1235           77.748909     -55.865842     -90.758058     -149.49634      72.656869      0.19640285    -51296.192      139.01937              0  -51197.132      76.260183    
   2472000   1236           77.14323       59.298212      171.9946      -7.1730309      13.07307       0.19647152    -51296.33       137.93638              0  -51197.169      77.121527    
   2474000   1237           76.049942      33.568702     -91.860108      114.07011      78.496098      0.19621896    -51295.612      135.98152              0  -51197.187      77.022927    
   2476000   1238           77.188536      104.73765     -102.83718      346.31097      70.73917       0.19624173    -51296.701      138.01739              0  -51197.238      76.393743    
   2478000   1239           77.81476       63.842107     -28.35698       214.52661      5.3566879      0.19651256    -51296.266      139.13712              0  -51197.261      77.155672    
   2480000   1240           76.943181      97.372318      32.283306      208.87972      50.953933      0.1962824     -51295.481      137.57868              0  -51197.311      76.70842     
   2482000   1241           77.250472      37.054865     -118.27518      179.10196      50.337825      0.19618177    -51294.26       138.12814              0  -51197.347      77.657455    
   2484000   1242           77.796541     -31.685624     -196.42902      46.245817      55.126332      0.19606539    -51295.514      139.10454              0  -51197.411      77.240871    
   2486000   1243           77.015761      31.825969     -120.87725      120.52695      95.828205      0.19618741    -51295.222      137.70846              0  -51197.438      76.616108    
   2488000   1244           77.607227      3.1151707     -9.3744024     -28.082842      46.802757      0.19636291    -51297.167      138.76604              0  -51197.485      75.959202    
   2490000   1245           76.038916     -91.973427     -285.58897     -13.880318      23.549004      0.19613057    -51296.689      135.96181              0  -51197.501      76.600256    
   2492000   1246           76.943136     -21.82251      -83.278433     -20.063914      37.874818      0.19628102    -51297.318      137.5786               0  -51197.548      76.627045    
   2494000   1247           76.23156       113.91305      234.36915      21.089249      86.280747      0.196407      -51296.269      136.30627              0  -51197.574      76.631149    
   2496000   1248           76.307977      75.313075     -152.9236       261.52087      117.34195      0.1963404     -51295.879      136.44291              0  -51197.604      77.001494    
   2498000   1249           77.003434      33.040478     -53.539883      91.562727      61.098589      0.19631575    -51296.655      137.68642              0  -51197.63       76.372181    
   2500000   1250           76.379412      31.947664     -17.274392      20.284004      92.833381      0.1959654     -51295.605      136.57063              0  -51197.678      76.761244    
   2502000   1251           77.678961     -127.44574     -223.62842     -195.06637      36.357574      0.19625147    -51295.977      138.8943               0  -51197.712      76.707087    
   2504000   1252           77.16901      -38.222192     -73.93377      -84.984101      44.251295      0.19612689    -51297.392      137.98248              0  -51197.78       76.687438    
   2506000   1253           76.81892      -42.331052     -59.569546     -96.303055      28.879446      0.19611342    -51295.944      137.3565               0  -51197.812      77.711303    
   2508000   1254           77.213213      111.6218       235.64303      52.354409      46.867966      0.19634641    -51296.286      138.06152              0  -51197.869      77.273443    
   2510000   1255           77.4826       -58.437723     -1.2693246     -213.47649      39.432646      0.19619629    -51294.216      138.5432               0  -51197.901      77.582465    
   2512000   1256           76.431293      22.646407     -7.0305512      24.638852      50.33092       0.19649142    -51295.152      136.6634               0  -51197.91       77.754026    
   2514000   1257           77.227581     -51.722143     -226.49668      8.9392411      62.391006      0.19610682    -51295.944      138.08721              0  -51197.966      77.702131    
   2516000   1258           77.920398     -9.6698348     -122.46965      7.8109538      85.649188      0.19602951    -51296.065      139.326                0  -51198.007      76.802551    
   2518000   1259           77.180597      44.732281     -82.828512      202.34694      14.678414      0.19632948    -51298.004      138.0032               0  -51198.053      76.102808    
   2520000   1260           76.639798      44.146706     -201.23779      218.19551      115.4824       0.19616467    -51296.609      137.03622              0  -51198.098      76.987516    
   2522000   1261           77.309089     -18.31732      -114.48334      31.091683      28.439694      0.19635952    -51296.293      138.23295              0  -51198.119      76.401892    
   2524000   1262           76.789776     -99.422181     -108.08757     -256.36704      66.188072      0.19619275    -51296.139      137.30439              0  -51198.164      77.213161    
   2526000   1263           76.480769     -61.849812     -126.17201     -141.34984      81.972414      0.19625139    -51297.045      136.75187              0  -51198.188      77.102901    
   2528000   1264           76.540257     -95.534324     -199.51823     -96.876607      9.7918662      0.19613836    -51295.962      136.85823              0  -51198.217      77.029461    
   2530000   1265           75.311967     -77.961949     -154.81138     -141.52208      62.447611      0.19627563    -51296.17       134.66198              0  -51198.272      76.135458    
   2532000   1266           77.301947      94.351341      48.367566      86.209175      148.47728      0.19641884    -51296.592      138.22018              0  -51198.306      77.052624    
   2534000   1267           76.846537      190.042        246.46393      290.77721      32.884876      0.19646942    -51296.311      137.40588              0  -51198.343      77.439114    
   2536000   1268           76.753939      157.18196      130.52132      245.35625      95.668292      0.19630011    -51295.465      137.24031              0  -51198.381      77.150149    
   2538000   1269           76.790869     -19.682295     -163.23998      130.7437      -26.550608      0.19620552    -51295.11       137.30634              0  -51198.414      77.703008    
   2540000   1270           75.736011     -45.835037     -221.9346      -5.0497677      89.47926       0.19618752    -51295.2        135.4202               0  -51198.447      77.480291    
   2542000   1271           76.946384     -113.37297     -282.2122      -140.35955      82.452834      0.19626142    -51294.807      137.58441              0  -51198.484      77.067764    
   2544000   1272           76.299961      7.4346438     -27.716529     -48.496811      98.517271      0.19630429    -51295.86       136.42857              0  -51198.519      77.436594    
   2546000   1273           76.571483      62.165744      117.66741      10.1729        58.656921      0.19649251    -51297.454      136.91407              0  -51198.566      76.58327     
   2548000   1274           76.982681      44.741358     -21.629812      103.51245      52.341438      0.19622287    -51297.835      137.64931              0  -51198.596      75.666075    
   2550000   1275           75.772369      181.66941      98.158591      277.9783       168.87133      0.19620261    -51296.933      135.48521              0  -51198.625      75.774733    
   2552000   1276           77.048495      102.40214      87.27616       137.21394      82.716323      0.1963171     -51297.773      137.76699              0  -51198.665      75.971643    
   2554000   1277           76.382017     -34.786496     -102.77989     -55.947742      54.368146      0.19627623    -51297.066      136.57529              0  -51198.684      75.912155    
   2556000   1278           76.853758     -171.83133     -173.55579     -349.16443      7.2262287      0.1963074     -51296.916      137.41879              0  -51198.729      76.083886    
   2558000   1279           77.908216     -15.723842     -5.9929795     -91.371607      50.19306       0.19642416    -51297.699      139.30422              0  -51198.734      75.798748    
   2560000   1280           77.135478      93.020212      175.28594      82.588007      21.186689      0.19645907    -51296.827      137.92252              0  -51198.781      76.206296    
   2562000   1281           77.644094      109.64229      136.25474      121.89282      70.779299      0.19638984    -51295.301      138.83196              0  -51198.785      76.883141    
   2564000   1282           77.039731     -0.79339777    -35.519666     -25.609882      58.749354      0.19632036    -51295.876      137.75132              0  -51198.831      76.13076     
   2566000   1283           77.215817      97.138103      130.90337      118.04429      42.466652      0.19610669    -51297.602      138.06617              0  -51198.876      76.323594    
   2568000   1284           77.49843       38.790764     -158.03176      229.02897      45.375085      0.19631007    -51297.501      138.5715               0  -51198.928      76.4862      
   2570000   1285           77.243411      103.52425      56.686088      170.58532      83.301333      0.1964565     -51295.846      138.11551              0  -51198.952      76.575297    
   2572000   1286           76.631446     -77.170852     -210.94078     -31.521838      10.950065      0.19639984    -51296.682      137.02129              0  -51199.007      76.49012     
   2574000   1287           76.580046     -184.01046     -405.14853     -154.43066      7.5478188      0.19616996    -51295.761      136.92938              0  -51199.016      76.788983    
   2576000   1288           76.410364      108.87879      66.743191      141.72814      118.16503      0.19614551    -51296.768      136.62598              0  -51199.056      76.73573     
   2578000   1289           76.726711      21.145235     -69.845565      86.676709      46.60456       0.19596547    -51296.866      137.19162              0  -51199.099      76.412075    
   2580000   1290           77.371815      62.977752     -82.581513      210.90704      60.60773       0.19621122    -51297.445      138.34511              0  -51199.147      76.375411    
   2582000   1291           76.714006      52.778348      113.28821      46.544498     -1.4976664      0.19662504    -51295.935      137.16891              0  -51199.155      77.47535     
   2584000   1292           76.983944     -93.106747     -177.92808     -145.98158      44.589418      0.19646666    -51294.234      137.65157              0  -51199.187      77.88003     
   2586000   1293           76.830031      22.787327     -11.372573      45.087706      34.646847      0.19634449    -51295.918      137.37637              0  -51199.262      76.83001     
   2588000   1294           77.642494     -47.32628      -138.10783     -23.72084       19.849832      0.19621251    -51296.271      138.82909              0  -51199.29       76.887415    
   2590000   1295           77.783578     -10.175051     -122.89691      13.647718      78.724039      0.19623936    -51295.989      139.08136              0  -51199.325      76.41062     
   2592000   1296           76.741931      108.90964      132.43734      132.11664      62.174937      0.19619635    -51297.003      137.21884              0  -51199.362      76.68223     
   2594000   1297           77.046491      39.662035      22.090243      59.30828       37.587583      0.19635589    -51296.677      137.76341              0  -51199.41       76.105854    
   2596000   1298           76.884314      193.48237      215.84492      260.83907      103.76312      0.19645271    -51296.64       137.47343              0  -51199.438      76.556513    
   2598000   1299           78.18207       147.83145      85.362493      273.51089      84.620973      0.19633316    -51295.346      139.79389              0  -51199.479      76.454957    
   2600000   1300           77.559384      101.73703      123.58145      130.83718      50.792468      0.19620041    -51295.92       138.68049              0  -51199.531      76.794352    
   2602000   1301           77.697081     -31.528244     -185.69054      40.750491      50.355321      0.19604618    -51296.057      138.9267               0  -51199.56       76.986906    
   2604000   1302           78.077997      35.114945      26.76365       3.6969896      74.884195      0.19611221    -51295.448      139.6078               0  -51199.589      76.909634    
   2606000   1303           76.641894     -246.00495     -540.12533     -161.55678     -36.332748      0.19615207    -51294.131      137.03997              0  -51199.62       77.319333    
   2608000   1304           76.728713      54.693816     -22.383046      105.45794      81.006551      0.19643734    -51295.842      137.1952               0  -51199.674      77.207745    
   2610000   1305           78.394899      23.536853     -242.83308      289.58441      23.859229      0.19631187    -51297.022      140.17444              0  -51199.72       76.215238    
   2612000   1306           76.827736      61.126333     -11.699191      83.279953      111.79824      0.19616419    -51296.061      137.37226              0  -51199.766      76.316874    
   2614000   1307           76.698         18.772307     -117.7431       119.56768      54.49234       0.19627349    -51297.019      137.14029              0  -51199.8        75.344753    
   2616000   1308           77.785606      68.700666      164.95816      44.561606     -3.4177676      0.19642051    -51296.682      139.08499              0  -51199.84       75.859833    
   2618000   1309           77.883304     -70.366845     -61.699585     -160.82322      11.422269      0.19634323    -51295.821      139.25968              0  -51199.876      76.841269    
   2620000   1310           77.214249     -40.144119     -210.06927      4.9024343      84.734479      0.19629578    -51295.734      138.06337              0  -51199.926      76.633215    
   2622000   1311           76.684263      84.871168     -8.9231901      212.48205      51.054642      0.19642155    -51295.316      137.11572              0  -51199.96       77.835006    
   2624000   1312           77.096424      113.50979     -104.6386       367.07209      78.095869      0.19623871    -51296.487      137.85269              0  -51200.009      76.69945     
   2626000   1313           76.941527     -48.061738     -216.21064      69.642682      2.3827464      0.19621372    -51295.981      137.57573              0  -51200.041      76.68571     
   2628000   1314           77.203576     -38.866493     -288.83633      113.45022      58.786637      0.19598616    -51296.786      138.04428              0  -51200.06       76.804094    
   2630000   1315           76.655404     -13.514557     -210.44517      158.57541      11.326086      0.1962483     -51295.087      137.06412              0  -51200.089      77.274016    
   2632000   1316           77.236625     -2.3568268     -238.43667      149.41874      81.947449      0.19629645    -51295.821      138.10338              0  -51200.132      77.228777    
   2634000   1317           76.610987      6.4362775     -87.82628       41.842759      65.292353      0.19638064    -51296.668      136.9847               0  -51200.149      77.315073    
   2636000   1318           77.026229     -4.9905301     -33.860027     -2.5139928      21.40243       0.19613544    -51296.632      137.72718              0  -51200.178      76.284829    
   2638000   1319           76.139157      30.063895     -26.038934      88.81389       27.416728      0.19629426    -51295.975      136.14104              0  -51200.202      77.102339    
   2640000   1320           76.774065      45.363518     -25.867017      90.327743      71.629828      0.19649729    -51295.504      137.2763               0  -51200.241      77.38212     
   2642000   1321           76.516912     -48.941075     -36.302334     -129.44531      18.924423      0.19630263    -51295.477      136.81649              0  -51200.279      76.902792    
   2644000   1322           76.847202     -160.50435     -346.29456     -142.25329      7.0348069      0.19608808    -51297.602      137.40707              0  -51200.321      76.199315    
   2646000   1323           76.521117     -32.624828     -188.74655      53.461943      37.410119      0.19646423    -51297.432      136.82401              0  -51200.358      76.33311     
   2648000   1324           77.020154      118.6488       121.01462      215.10098      19.830794      0.19670812    -51296.469      137.71632              0  -51200.369      77.330324    
   2650000   1325           77.180512      93.9777        58.603965      114.98415      108.34498      0.19636868    -51297.053      138.00304              0  -51200.42       77.453189    
   2652000   1326           77.221625      42.952642     -32.443576      83.356196      77.945308      0.19632267    -51297.363      138.07656              0  -51200.466      76.623679    
   2654000   1327           76.246651      50.134227     -41.641305      114.14728      77.896706      0.19623961    -51296.621      136.33325              0  -51200.507      76.332455    
   2656000   1328           77.025899      111.42574      86.930875      149.04454      98.301798      0.19627412    -51297.477      137.72659              0  -51200.541      76.669706    
   2658000   1329           76.402205      60.341395      21.325843      148.91536      10.782979      0.19621122    -51296.122      136.61139              0  -51200.583      77.229361    
   2660000   1330           76.27347      -95.412218     -243.47629     -22.219977     -20.540388      0.19600871    -51296.728      136.3812               0  -51200.63       76.538502    
   2662000   1331           75.696798      37.232679     -118.53715      106.84735      123.38783      0.19634979    -51294.494      135.35008              0  -51200.656      77.419793    
   2664000   1332           77.064086     -51.172617     -243.59818      49.984102      40.096229      0.19629601    -51295.514      137.79487              0  -51200.697      76.673957    
   2666000   1333           76.099869      62.210782      21.950213      72.264415      92.417719      0.19642343    -51294.934      136.0708               0  -51200.728      76.644915    
   2668000   1334           76.546873      66.785237      0.60777344     184.90581      14.842126      0.19618159    -51295.919      136.87006              0  -51200.765      76.589693    
   2670000   1335           76.580472      248.55612      265.10386      411.20784      69.356654      0.19651079    -51295.334      136.93014              0  -51200.785      77.09824     
   2672000   1336           77.421431      44.744051     -132.37563      189.21821      77.389569      0.19601771    -51294.448      138.43382              0  -51200.823      77.537813    
   2674000   1337           76.795321      102.33192      18.773457      276.63606      11.586249      0.19624808    -51294.915      137.3143               0  -51200.843      77.43443     
   2676000   1338           76.744032     -21.827306      140.59802     -211.15323      5.0732985      0.19620259    -51294.474      137.22259              0  -51200.89       77.22696     
   2678000   1339           76.607414      21.020601      107.81868     -95.654764      50.897889      0.19633437    -51295.289      136.97832              0  -51200.936      77.867331    
   2680000   1340           77.234077     -39.152538     -75.874301     -42.615235      1.0319232      0.19620836    -51296.459      138.09882              0  -51200.976      76.555257    
   2682000   1341           77.360532      57.760797      92.194058      45.995141      35.093193      0.19622837    -51297.705      138.32493              0  -51201.008      76.695322    
   2684000   1342           77.024435     -24.681807     -32.054036     -94.200184      52.208797      0.19633806    -51295.26       137.72397              0  -51201.028      77.593773    
   2686000   1343           77.041977     -16.772223      40.788996     -116.40621      25.300539      0.19619046    -51295.735      137.75534              0  -51201.064      77.754964    
   2688000   1344           76.558516     -5.055477       63.735862     -76.373384     -2.528909       0.19628408    -51296.136      136.89088              0  -51201.084      77.572812    
   2690000   1345           77.248474      91.467233      116.05091      83.399542      74.95125       0.19642819    -51296.591      138.12457              0  -51201.134      77.331589    
   2692000   1346           77.040021      190.56128      360.48407      143.79337      67.406417      0.1963553     -51297.438      137.75184              0  -51201.191      76.957493    
   2694000   1347           76.572605      136.02785      238.12845      113.39395      56.561165      0.1962949     -51296.225      136.91607              0  -51201.216      77.114483    
   2696000   1348           77.154434      96.614128      115.65132      166.50383      7.6872322      0.19608508    -51297.84       137.95642              0  -51201.27       76.986418    
   2698000   1349           76.802422     -4.1995956      8.1513937     -102.18564      81.435457      0.19603203    -51296.4        137.327                0  -51201.309      77.320275    
   2700000   1350           77.124126      12.079292      30.616885     -41.039274      46.660265      0.19631438    -51296.549      137.90222              0  -51201.335      76.73493     
   2702000   1351           76.917973      89.867174      291.90292     -39.468331      17.166935      0.19635318    -51295.448      137.53361              0  -51201.365      77.266426    
   2704000   1352           76.390933      31.641983     -33.343576      62.828453      65.441072      0.19616994    -51297.572      136.59123              0  -51201.424      76.147883    
   2706000   1353           77.284461     -38.975715     -40.157536     -100.84989      24.080277      0.19630178    -51297.433      138.18891              0  -51201.451      75.719765    
   2708000   1354           76.203467     -60.034278     -68.141859     -117.79271      5.8317346      0.19639227    -51296.85       136.25604              0  -51201.474      76.523244    
   2710000   1355           76.744687     -23.982322     -70.722902     -11.30052       10.076457      0.19629616    -51297.423      137.22377              0  -51201.502      76.756276    
   2712000   1356           77.006152     -41.971802     -43.699278     -126.33683      44.120698      0.19636018    -51295.847      137.69128              0  -51201.529      76.3425      
   2714000   1357           77.004509     -12.642904      17.804899     -81.951089      26.217478      0.19631791    -51296.813      137.68834              0  -51201.587      76.492123    
   2716000   1358           76.273839      17.685915     -72.44338       32.262982      93.238143      0.19611833    -51294.749      136.38186              0  -51201.622      76.61976     
   2718000   1359           76.585106      23.744333     -164.69939      194.65127      41.281118      0.19608355    -51297.456      136.93843              0  -51201.679      75.824093    
   2720000   1360           77.677699      124.20897      103.65763      203.87677      65.092523      0.19637924    -51295.141      138.89204              0  -51201.7        76.72305     
   2722000   1361           76.641159      59.750991     -3.6199831      93.360816      89.51214       0.19607259    -51297.173      137.03865              0  -51201.727      77.001857    
   2724000   1362           76.584877     -76.909982     -309.05741      51.693786      26.63368       0.19611043    -51295.676      136.93802              0  -51201.753      77.028959    
   2726000   1363           77.028987     -22.454088     -251.59489      129.70299      54.529637      0.19632628    -51295.95       137.73211              0  -51201.782      77.468018    
   2728000   1364           77.330996      109.57152      52.92508       219.63869      56.150777      0.19643439    -51295.622      138.27212              0  -51201.828      77.209845    
   2730000   1365           76.274527      48.654049     -18.479869      70.488886      93.95313       0.19631829    -51295.64       136.38309              0  -51201.869      76.92178     
   2732000   1366           77.093626      12.897658      27.321314     -81.736771      93.108431      0.19626497    -51296.029      137.84769              0  -51201.889      77.270515    
   2734000   1367           77.233026     -106.56127     -151.29488     -232.24714      63.858204      0.196198      -51296.097      138.09694              0  -51201.932      76.353773    
   2736000   1368           76.926865      46.43789       83.745078      19.72689       35.841702      0.19664463    -51296.701      137.54951              0  -51201.966      77.217203    
   2738000   1369           76.749842      168.32656      220.7454       221.52735      62.706932      0.19636887    -51297.667      137.23298              0  -51201.996      76.56534     
   2740000   1370           76.625924      109.3277       67.077178      235.42683      25.479081      0.19626534    -51298.652      137.01141              0  -51202.064      76.24609     
   2742000   1371           76.853008      38.576735     -4.6387285      92.005663      28.36327       0.19629256    -51296.787      137.41745              0  -51202.109      76.977326    
   2744000   1372           78.361896      152.687        96.221237      255.92805      105.91172      0.1963723     -51295.741      140.11543              0  -51202.148      77.260049    
   2746000   1373           77.039132      117.51777      27.108874      200.75439      124.69006      0.19626517    -51296.762      137.75025              0  -51202.17       77.257521    
   2748000   1374           77.135717     -10.792138     -174.35033      91.004491      50.96943       0.19599953    -51297.619      137.92295              0  -51202.216      76.502917    
   2750000   1375           77.825058     -13.369759      1.4893346     -41.676746      0.078135232    0.1962475     -51296.984      139.15553              0  -51202.252      76.669094    
   2752000   1376           77.260892      11.563422      121.59065     -53.83252      -33.067862      0.1963899     -51296.493      138.14677              0  -51202.291      76.367707    
   2754000   1377           76.767259     -182.02443     -173.88238     -362.96796     -9.2229616      0.1963796     -51294.632      137.26413              0  -51202.312      77.58021     
   2756000   1378           77.444186     -12.420802     -164.6152       12.968518      114.38428      0.19622362    -51296.803      138.47451              0  -51202.341      76.883175    
   2758000   1379           77.184443      116.40314      33.968606      207.21516      108.02566      0.19646571    -51297.228      138.01007              0  -51202.38       77.024329    
   2760000   1380           76.614767      125.82293      47.174844      229.98177      100.31217      0.1962892     -51296.532      136.99146              0  -51202.419      76.283135    
   2762000   1381           76.870385      84.862315      31.092072      181.97856      41.516315      0.19630762    -51296.046      137.44852              0  -51202.457      76.661016    
   2764000   1382           76.65796      -26.284581     -144.56906      39.504164      26.211149      0.19625248    -51295.089      137.06869              0  -51202.488      76.943749    
   2766000   1383           77.401527      20.864633      18.643749      27.664779      16.285372      0.19625338    -51295.656      138.39823              0  -51202.555      77.005275    
   2768000   1384           76.778958     -14.979089     -58.970734     -38.886912      52.920378      0.19608894    -51294.808      137.28505              0  -51202.57       77.652946    
   2770000   1385           77.29636       11.983593     -86.734375      71.138282      51.54687       0.19596565    -51293.864      138.21019              0  -51202.629      77.472912    
   2772000   1386           78.063798      40.204949      87.672387     -27.59601       60.538469      0.19624754    -51295.063      139.58241              0  -51202.65       77.275776    
   2774000   1387           77.526531     -24.313345     -16.092534     -37.429508     -19.417992      0.19633951    -51294.345      138.62175              0  -51202.671      77.490237    
   2776000   1388           76.66183       47.939744     -311.00427      418.78985      36.033651      0.19603483    -51296.241      137.07561              0  -51202.73       77.041584    
   2778000   1389           76.569517     -118.33721     -480.9137       19.190564      106.7115       0.19613314    -51295.117      136.91055              0  -51202.766      76.893362    
   2780000   1390           75.527131     -167.33349     -252.84952     -283.35711      34.206162      0.19616477    -51297.218      135.04671              0  -51202.808      75.990101    
   2782000   1391           77.225742      0.40002196    -56.828859     -43.026397      101.05532      0.19626914    -51296.5        138.08392              0  -51202.841      76.730113    
   2784000   1392           76.808399      39.369049     -84.693671      105.45733      97.343491      0.19633547    -51295.649      137.33769              0  -51202.878      77.258756    
   2786000   1393           77.562601      5.6277579     -84.973048      53.45769       48.398632      0.19633689    -51295.418      138.68624              0  -51202.896      78.316438    
   2788000   1394           77.00195       69.019325      192.84567     -3.4478841      17.660193      0.19680415    -51296.578      137.68377              0  -51202.937      77.3295      
   2790000   1395           77.224844      115.70291      166.12112      114.93896      66.048633      0.19624829    -51295.022      138.08231              0  -51202.958      77.594099    
   2792000   1396           77.773368      63.255108      93.326356      33.958782      62.480187      0.19621085    -51294.002      139.06311              0  -51203.015      78.100186    
   2794000   1397           76.800576      57.62652       44.836685      108.40324      19.639636      0.19630743    -51294.018      137.3237               0  -51203.038      78.179546    
   2796000   1398           77.705847      43.903087     -234.72005      285.29566      81.133654      0.19593255    -51294.973      138.94237              0  -51203.086      77.48817     
   2798000   1399           77.394262      43.665466     -92.71661       138.67795      85.035057      0.19617728    -51295.524      138.38524              0  -51203.099      77.30451     
   2800000   1400           77.152912      23.861854     -193.54574      155.36893      109.76237      0.19620357    -51295.319      137.9537               0  -51203.132      77.792785    
   2802000   1401           76.335958      38.205848      177.07776     -101.69312      39.232909      0.19635851    -51296.798      136.49294              0  -51203.189      76.626075    
   2804000   1402           77.107607      37.402425     -24.699874      98.712846      38.194302      0.19617616    -51296.911      137.87269              0  -51203.234      76.715607    
   2806000   1403           76.690502     -135.13811     -166.30864     -210.3917      -28.713995      0.19594277    -51296.196      137.12688              0  -51203.253      77.966635    
   2808000   1404           76.197865     -39.508721     -161.71698     -20.421047      63.611865      0.19620806    -51295.53       136.24602              0  -51203.274      77.150777    
   2810000   1405           76.785317      17.935672     -14.083101      5.290209       62.599907      0.19647852    -51297.434      137.29642              0  -51203.307      76.984007    
   2812000   1406           76.346032      108.98017      108.14092      191.36429      27.435296      0.1963737     -51297.902      136.51095              0  -51203.326      77.205746    
   2814000   1407           76.284383      179.81952      244.91346      275.84724      18.697843      0.19639154    -51295.639      136.40072              0  -51203.369      77.408991    
   2816000   1408           76.783183      73.429887     -41.055992      172.40448      88.941174      0.19646154    -51296.138      137.2926               0  -51203.406      77.465164    
   2818000   1409           76.466243      95.834449      1.6675774      182.22499      103.61078      0.19634279    -51294.988      136.72589              0  -51203.436      77.875398    
   2820000   1410           76.49721      -60.545499     -42.008069     -154.4217       14.793276      0.19633858    -51296.108      136.78126              0  -51203.495      77.251995    
   2822000   1411           77.297316      36.699623      171.44679     -103.62873      42.280809      0.19651903    -51296.686      138.2119               0  -51203.532      76.971013    
   2824000   1412           76.575192     -93.477237     -178.55179     -169.14727      67.267349      0.1962607     -51296.694      136.9207               0  -51203.579      77.200811    
   2826000   1413           76.552189     -30.653924     -106.24449      31.140171     -16.857449      0.1962318     -51296.617      136.87957              0  -51203.591      77.406227    
   2828000   1414           77.324404     -72.405557     -343.1028       139.91912     -14.032999      0.19588774    -51296.776      138.26033              0  -51203.637      77.64379     
   2830000   1415           77.114331     -5.3202166      53.103534     -98.7896        29.725416      0.19645444    -51297.751      137.88471              0  -51203.657      77.00678     
   2832000   1416           77.133739      84.501901      238.90223     -38.717563      53.321035      0.19661015    -51295.741      137.91941              0  -51203.7        77.332028    
   2834000   1417           77.035361      75.914563      230.97011     -9.6073662      6.3809511      0.19630846    -51296.501      137.74351              0  -51203.73       76.824823    
   2836000   1418           75.962831      88.733015      106.47297      147.58592      12.140149      0.19611668    -51295.689      135.82576              0  -51203.762      77.674626    
   2838000   1419           76.455728      40.307469     -23.950884      71.462892      73.410399      0.196159      -51296.997      136.70709              0  -51203.811      76.889243    
   2840000   1420           75.676598      149.52         152.55872      222.24852      73.752753      0.19648867    -51296.154      135.31396              0  -51203.853      77.682213    
   2842000   1421           76.758782      42.663107      59.188386      16.329334      52.471599      0.19623048    -51296.493      137.24897              0  -51203.904      77.34999     
   2844000   1422           77.274793     -12.659408     -108.14572      74.481922     -4.3144304      0.19621107    -51295.703      138.17162              0  -51203.916      77.232182    
   2846000   1423           77.267797      38.02578       63.080108     -4.1422088      55.139441      0.19663669    -51296.471      138.15912              0  -51203.996      76.818637    
   2848000   1424           77.200151     -53.052337     -118.56907     -62.171774      21.58383       0.19630442    -51294.73       138.03816              0  -51204.011      78.260855    
   2850000   1425           77.160368     -79.417408     -147.36668     -159.83048      68.944938      0.19613243    -51296.336      137.96703              0  -51204.085      77.505114    
   2852000   1426           77.887267      19.408999      185.99014     -133.28576      5.5226152      0.19627886    -51296.791      139.26676              0  -51204.114      77.268688    
   2854000   1427           76.979891      107.5298       97.208124      175.4996       49.881661      0.19636036    -51297.919      137.64432              0  -51204.153      77.136935    
   2856000   1428           77.042312      23.317729     -121.75324      147.7785       43.927925      0.19641821    -51298.475      137.75594              0  -51204.204      76.303864    
   2858000   1429           77.242428     -68.111884     -254.69433     -10.718691      61.077374      0.19624828    -51295.738      138.11375              0  -51204.213      77.048243    
   2860000   1430           76.958575     -84.923755     -187.81051     -86.966098      20.005342      0.19617633    -51296.296      137.60621              0  -51204.251      77.324866    
   2862000   1431           77.435257      140.30521      45.9515        304.30368      70.660456      0.1963526     -51296.497      138.45854              0  -51204.29       77.746081    
   2864000   1432           77.765017      20.619104      28.149895      28.149879      5.557539       0.19628827    -51295.941      139.04817              0  -51204.33       76.965923    
   2866000   1433           77.013602     -44.22864      -231.45952      51.746685      47.026914      0.19620346    -51296.839      137.7046               0  -51204.365      76.861396    
   2868000   1434           76.728612      48.234731     -60.702285      130.63708      74.769394      0.19609875    -51296.324      137.19502              0  -51204.397      76.672082    
   2870000   1435           76.525039     -8.8704333     -212.50441      132.40136      53.491747      0.19614135    -51295.349      136.83102              0  -51204.438      76.965761    
   2872000   1436           76.783187      99.012849     -24.179505      231.34858      89.869475      0.19617264    -51295.163      137.29261              0  -51204.487      77.468798    
   2874000   1437           76.531558      13.213466     -90.339378      102.06213      27.917642      0.19634368    -51295.456      136.84268              0  -51204.515      77.215274    
   2876000   1438           76.233267     -86.709085     -194.47072     -64.528999     -1.1275351      0.19624305    -51296.604      136.30932              0  -51204.556      78.034581    
   2878000   1439           77.347034     -121.70216     -216.22992     -167.31146      18.434881      0.19614746    -51296.066      138.3008               0  -51204.605      78.231147    
   2880000   1440           76.647408      138.74812      70.454643      237.02931      108.76041      0.19640716    -51296.944      137.04983              0  -51204.655      78.299267    
   2882000   1441           76.694746      84.217899      133.45448      64.852334      54.346883      0.19618536    -51297.08       137.13447              0  -51204.697      77.217383    
   2884000   1442           76.798367      25.918432      7.1917863      33.655023      36.908486      0.19629263    -51297.824      137.31975              0  -51204.751      77.057333    
   2886000   1443           77.364548     -30.109335     -8.8234291     -114.29476      32.79018       0.19647681    -51295.47       138.33211              0  -51204.761      78.211839    
   2888000   1444           77.229833     -30.10474      -146.33913      24.154025      31.870884      0.19644688    -51296.896      138.09124              0  -51204.811      77.799734    
   2890000   1445           75.784606     -82.477381     -195.90853     -142.12284      90.599229      0.19610181    -51297.767      135.50709              0  -51204.867      77.354868    
   2892000   1446           77.461986     -22.41649      -158.28324     -18.64227       109.67604      0.19625744    -51298.209      138.50634              0  -51204.909      77.191705    
   2894000   1447           78.23041      -60.278423     -246.46383     -34.017866      99.646424      0.19618767    -51294.248      139.88032              0  -51204.935      79.358126    
   2896000   1448           76.252226     -5.2029965     -175.90619      114.08813      46.209066      0.19624953    -51297.534      136.34322              0  -51204.985      77.578445    
   2898000   1449           76.670161      139.82631      45.083344      297.4956       76.899973      0.19646185    -51295.189      137.09051              0  -51205.001      78.478711    
   2900000   1450           76.094049      49.739931      48.57612       36.684471      63.959201      0.19609583    -51294.708      136.06039              0  -51205.064      78.373204    
   2902000   1451           76.572229     -14.761538     -132.43589      5.5206431      82.630626      0.19621505    -51296.466      136.9154               0  -51205.107      77.206737    
   2904000   1452           76.79309      -8.7792527      33.798472     -55.613801     -4.5224288      0.19623795    -51295.207      137.31031              0  -51205.135      78.100272    
   2906000   1453           76.597533      28.140132     -113.42971      194.82253      3.0275665      0.19625311    -51293.963      136.96065              0  -51205.179      78.859789    
   2908000   1454           76.467325      43.213266     -139.37826      272.23863     -3.2205742      0.1962588     -51294.987      136.72783              0  -51205.215      79.300792    
   2910000   1455           77.256102      41.188409      20.750024      90.090032      12.725171      0.1962719     -51296.173      138.13821              0  -51205.255      78.464862    
   2912000   1456           77.027809      16.850262     -63.181815      146.722       -32.989402      0.19643094    -51296.966      137.73                 0  -51205.309      77.672124    
   2914000   1457           77.212009      57.820949     -14.054879      142.01228      45.505445      0.19639469    -51296.88       138.05936              0  -51205.333      77.647537    
   2916000   1458           77.825522     -54.052879     -127.46082     -50.908344      16.210531      0.19624922    -51296.078      139.15636              0  -51205.385      78.174981    
   2918000   1459           76.659687      18.602636     -64.184128      57.020817      62.971218      0.19641608    -51296.415      137.07178              0  -51205.419      77.740761    
   2920000   1460           77.069519      127.94235      196.47325      154.92972      32.424087      0.19648509    -51297.158      137.80458              0  -51205.444      78.040736    
   2922000   1461           76.402913      139.42955     -3.2852482      264.01632      157.55758      0.19647713    -51294.987      136.61265              0  -51205.482      78.428844    
   2924000   1462           76.678312      23.76554      -54.122473      64.158084      61.261008      0.19614684    -51294.008      137.10508              0  -51205.53       78.192758    
   2926000   1463           76.853673      123.26446      183.16509      118.4757       68.152587      0.19610719    -51295.197      137.41864              0  -51205.584      77.519407    
   2928000   1464           77.884153      13.435394      151.38744     -135.00645      23.925197      0.19625145    -51295.805      139.26119              0  -51205.637      77.851153    
   2930000   1465           75.729795      41.104039     -48.910022      83.980553      88.241587      0.19624571    -51296.395      135.40908              0  -51205.699      77.635627    
   2932000   1466           76.863056      53.919325      156.83946     -35.507691      40.426209      0.19648958    -51297.249      137.43542              0  -51205.76       77.31684     
   2934000   1467           76.569289      42.455054     -84.129198      147.56808      63.926276      0.19612913    -51296.038      136.91014              0  -51205.809      76.992935    
   2936000   1468           76.651486      25.373745     -54.218597      121.44473      8.8951013      0.19625081    -51297.343      137.05712              0  -51205.859      76.733266    
   2938000   1469           77.561063     -38.763814     -63.311091     -112.28341      59.30306       0.1961927     -51295.969      138.68349              0  -51205.881      76.926005    
   2940000   1470           77.00979       40.079784      45.754619     -35.716409      110.20114      0.19654384    -51296.849      137.69778              0  -51205.926      77.28285     
   2942000   1471           77.494397      105.01067      205.26161      100.9355       8.8348972      0.19648423    -51296.28       138.56429              0  -51205.962      77.434746    
   2944000   1472           77.894309     -91.096955     -325.72087      24.206154      28.223848      0.19611751    -51295.382      139.27935              0  -51205.995      77.373892    
   2946000   1473           77.11787      -63.299873     -192.14849     -45.283634      47.532505      0.196311      -51296.008      137.89104              0  -51206.052      77.926096    
   2948000   1474           77.417015      6.7268673     -62.88048       23.802347      59.258735      0.19633956    -51297.096      138.42593              0  -51206.091      77.226401    
   2950000   1475           76.313673      126.8359       76.159732      238.42233      65.925648      0.19626272    -51295.795      136.45309              0  -51206.13       77.570511    
   2952000   1476           76.978752      92.373718      214.50077     -8.8060766      71.426465      0.19639967    -51296.238      137.64229              0  -51206.171      77.460459    
   2954000   1477           76.660488      17.679154     -87.158115      90.301482      49.894094      0.19612852    -51296.448      137.07321              0  -51206.219      77.198866    
   2956000   1478           75.74376      -121.93798     -210.50761     -177.00231      21.695997      0.19628351    -51296.625      135.43405              0  -51206.257      77.2326      
   2958000   1479           76.848728     -15.916305      68.780932     -133.91618      17.386334      0.19638191    -51296.567      137.4098               0  -51206.292      77.136666    
   2960000   1480           76.858356     -41.776176     -113.24313     -41.987368      29.901967      0.19613164    -51296.226      137.42701              0  -51206.326      77.126593    
   2962000   1481           76.492123     -23.598031     -13.917344     -75.154414      18.277665      0.19639857    -51297.078      136.77217              0  -51206.352      77.334294    
   2964000   1482           76.00405      -41.005952     -197.36976      30.952942      43.398959      0.19620839    -51298.487      135.89947              0  -51206.409      76.412045    
   2966000   1483           77.248775     -62.160782     -175.21425     -29.686253      18.418163      0.19620087    -51295.512      138.1251               0  -51206.44       77.437232    
   2968000   1484           77.611617     -24.568434      7.5139767     -75.825628     -5.3936501      0.19596407    -51296.383      138.77388              0  -51206.469      76.126956    
   2970000   1485           76.577966      57.570636      132.33906     -61.754051      102.1269       0.19623674    -51296.661      136.92566              0  -51206.503      77.767523    
   2972000   1486           76.201101      7.9802566     -4.4759636      51.267394     -22.850661      0.19653234    -51295.216      136.2518               0  -51206.539      77.33287     
   2974000   1487           76.942447      0.16147198    -211.04388      182.7418       28.786493      0.19621132    -51296.147      137.57737              0  -51206.587      77.365806    
   2976000   1488           77.802385     -39.872415     -302.19137      91.843158      90.730966      0.19632104    -51297.536      139.11499              0  -51206.609      76.676748    
   2978000   1489           77.132987     -101.33352     -178.19095     -149.84475      24.035137      0.19618823    -51297.293      137.91807              0  -51206.658      76.556607    
   2980000   1490           76.962337     -63.157368     -221.08194      19.307832      12.302002      0.19626068    -51296.739      137.61294              0  -51206.697      77.013982    
   2982000   1491           77.246149      103.67894      83.132534      135.11073      92.793572      0.19658304    -51295.875      138.12041              0  -51206.725      78.295414    
   2984000   1492           76.820106      232.86931      196.70816      465.94029      35.959479      0.19634687    -51297.376      137.35862              0  -51206.763      77.795507    
   2986000   1493           76.709734      145.12677     -95.482589      458.44976      72.413138      0.19623508    -51297.829      137.16127              0  -51206.808      77.897352    
   2988000   1494           76.599099     -66.120781     -167.63228     -43.194612      12.464549      0.19612552    -51297.507      136.96345              0  -51206.834      77.90755     
   2990000   1495           77.413436     -50.038015     -113.60217     -124.30146      87.789591      0.19606255    -51296.248      138.41953              0  -51206.875      77.979429    
   2992000   1496           77.024279     -79.093838     -99.505475     -147.13571      9.3596752      0.19620273    -51297.926      137.72369 